nqpoint: 306    
npath: 6      
segment_nqpoint:
- 51
- 51
- 51
- 51
- 51
- 51
labels:
- [ '$\Gamma$', 'A' ]
- [ 'A', 'K' ]
- [ 'K', 'H' ]
- [ 'H', 'H_2' ]
- [ 'H_2', 'M' ]
- [ 'M', 'L' ]
reciprocal_lattice:
- [   0.32413861,   0.18714151,   0.00000000 ] # a*
- [   0.00000000,   0.37428303,   0.00000000 ] # b*
- [   0.00000000,   0.00000000,   0.28408283 ] # c*
natom: 3      
lattice:
- [     3.085099935500000,     0.000000000000000,     0.000000000000000 ] # a
- [    -1.542549967800000,     2.671774917400000,     0.000000000000000 ] # b
- [     0.000000000000000,     0.000000000000000,     3.520100116700000 ] # c
points:
- symbol: Mg # 1
  coordinates: [  0.000000000000000,  0.000000000000000,  0.000000000000000 ]
  mass: 24.305000
- symbol: B  # 2
  coordinates: [  0.333333343000000,  0.666666687000003,  0.500000000000000 ]
  mass: 10.811000
- symbol: B  # 3
  coordinates: [  0.666666626999998,  0.333333312999997,  0.500000000000000 ]
  mass: 10.811000

phonon:
- q-position: [    0.0000000,    0.0000000,    0.0000000 ]
  distance:    0.0000000
  band:
  - # 1
    frequency:   -0.0024351943
  - # 2
    frequency:   -0.0024351943
  - # 3
    frequency:   -0.0008426984
  - # 4
    frequency:    1.4290534565
  - # 5
    frequency:    1.4290534565
  - # 6
    frequency:    1.7042602559
  - # 7
    frequency:    2.4158315443
  - # 8
    frequency:    2.4158315443
  - # 9
    frequency:    2.9555850615

- q-position: [    0.0000000,    0.0000000,    0.0100000 ]
  distance:    0.0028408
  band:
  - # 1
    frequency:    0.0208437992
  - # 2
    frequency:    0.0208437992
  - # 3
    frequency:    0.0367503437
  - # 4
    frequency:    1.4288546589
  - # 5
    frequency:    1.4288546590
  - # 6
    frequency:    1.7042523383
  - # 7
    frequency:    2.4155519621
  - # 8
    frequency:    2.4155519622
  - # 9
    frequency:    2.9553611135

- q-position: [    0.0000000,    0.0000000,    0.0200000 ]
  distance:    0.0056817
  band:
  - # 1
    frequency:    0.0418974174
  - # 2
    frequency:    0.0418974174
  - # 3
    frequency:    0.0734871366
  - # 4
    frequency:    1.4282583652
  - # 5
    frequency:    1.4282583652
  - # 6
    frequency:    1.7042282612
  - # 7
    frequency:    2.4147141252
  - # 8
    frequency:    2.4147141253
  - # 9
    frequency:    2.9546900516

- q-position: [    0.0000000,    0.0000000,    0.0300000 ]
  distance:    0.0085225
  band:
  - # 1
    frequency:    0.0628975345
  - # 2
    frequency:    0.0628975345
  - # 3
    frequency:    0.1101646589
  - # 4
    frequency:    1.4272648720
  - # 5
    frequency:    1.4272648720
  - # 6
    frequency:    1.7041870540
  - # 7
    frequency:    2.4133207612
  - # 8
    frequency:    2.4133207613
  - # 9
    frequency:    2.9535742208

- q-position: [    0.0000000,    0.0000000,    0.0400000 ]
  distance:    0.0113633
  band:
  - # 1
    frequency:    0.0838767939
  - # 2
    frequency:    0.0838767939
  - # 3
    frequency:    0.1467573742
  - # 4
    frequency:    1.4258746736
  - # 5
    frequency:    1.4258746737
  - # 6
    frequency:    1.7041271046
  - # 7
    frequency:    2.4113764121
  - # 8
    frequency:    2.4113764122
  - # 9
    frequency:    2.9520175235

- q-position: [    0.0000000,    0.0000000,    0.0500000 ]
  distance:    0.0142041
  band:
  - # 1
    frequency:    0.1048392477
  - # 2
    frequency:    0.1048392477
  - # 3
    frequency:    0.1832379019
  - # 4
    frequency:    1.4240884612
  - # 5
    frequency:    1.4240884612
  - # 6
    frequency:    1.7040461687
  - # 7
    frequency:    2.4088874282
  - # 8
    frequency:    2.4088874283
  - # 9
    frequency:    2.9500254112

- q-position: [    0.0000000,    0.0000000,    0.0600000 ]
  distance:    0.0170450
  band:
  - # 1
    frequency:    0.1257842009
  - # 2
    frequency:    0.1257842009
  - # 3
    frequency:    0.2195786551
  - # 4
    frequency:    1.4219071217
  - # 5
    frequency:    1.4219071217
  - # 6
    frequency:    1.7039413823
  - # 7
    frequency:    2.4058619595
  - # 8
    frequency:    2.4058619595
  - # 9
    frequency:    2.9476048721

- q-position: [    0.0000000,    0.0000000,    0.0700000 ]
  distance:    0.0198858
  band:
  - # 1
    frequency:    0.1467095883
  - # 2
    frequency:    0.1467095883
  - # 3
    frequency:    0.2557520984
  - # 4
    frequency:    1.4193317369
  - # 5
    frequency:    1.4193317369
  - # 6
    frequency:    1.7038092783
  - # 7
    frequency:    2.4023099443
  - # 8
    frequency:    2.4023099444
  - # 9
    frequency:    2.9447644157

- q-position: [    0.0000000,    0.0000000,    0.0800000 ]
  distance:    0.0227266
  band:
  - # 1
    frequency:    0.1676128139
  - # 2
    frequency:    0.1676128139
  - # 3
    frequency:    0.2917308312
  - # 4
    frequency:    1.4163635821
  - # 5
    frequency:    1.4163635822
  - # 6
    frequency:    1.7036458057
  - # 7
    frequency:    2.3982430954
  - # 8
    frequency:    2.3982430955
  - # 9
    frequency:    2.9415140533

- q-position: [    0.0000000,    0.0000000,    0.0900000 ]
  distance:    0.0255675
  band:
  - # 1
    frequency:    0.1884910278
  - # 2
    frequency:    0.1884910279
  - # 3
    frequency:    0.3274876316
  - # 4
    frequency:    1.4130041245
  - # 5
    frequency:    1.4130041245
  - # 6
    frequency:    1.7034463541
  - # 7
    frequency:    2.3936748831
  - # 8
    frequency:    2.3936748831
  - # 9
    frequency:    2.9378652751

- q-position: [    0.0000000,    0.0000000,    0.1000000 ]
  distance:    0.0284083
  band:
  - # 1
    frequency:    0.2093412346
  - # 2
    frequency:    0.2093412346
  - # 3
    frequency:    0.3629954872
  - # 4
    frequency:    1.4092550211
  - # 5
    frequency:    1.4092550211
  - # 6
    frequency:    1.7032057810
  - # 7
    frequency:    2.3886205148
  - # 8
    frequency:    2.3886205149
  - # 9
    frequency:    2.9338310234

- q-position: [    0.0000000,    0.0000000,    0.1100000 ]
  distance:    0.0312491
  band:
  - # 1
    frequency:    0.2301603401
  - # 2
    frequency:    0.2301603401
  - # 3
    frequency:    0.3982276191
  - # 4
    frequency:    1.4051181170
  - # 5
    frequency:    1.4051181171
  - # 6
    frequency:    1.7029184434
  - # 7
    frequency:    2.3830969120
  - # 8
    frequency:    2.3830969120
  - # 9
    frequency:    2.9294256621

- q-position: [    0.0000000,    0.0000000,    0.1200000 ]
  distance:    0.0340899
  band:
  - # 1
    frequency:    0.2509451735
  - # 2
    frequency:    0.2509451735
  - # 3
    frequency:    0.4331575019
  - # 4
    frequency:    1.4005954430
  - # 5
    frequency:    1.4005954430
  - # 6
    frequency:    1.7025782341
  - # 7
    frequency:    2.3771226830
  - # 8
    frequency:    2.3771226830
  - # 9
    frequency:    2.9246649414

- q-position: [    0.0000000,    0.0000000,    0.1300000 ]
  distance:    0.0369308
  band:
  - # 1
    frequency:    0.2716924974
  - # 2
    frequency:    0.2716924974
  - # 3
    frequency:    0.4677588805
  - # 4
    frequency:    1.3956892129
  - # 5
    frequency:    1.3956892129
  - # 6
    frequency:    1.7021786215
  - # 7
    frequency:    2.3707180920
  - # 8
    frequency:    2.3707180921
  - # 9
    frequency:    2.9195659596

- q-position: [    0.0000000,    0.0000000,    0.1400000 ]
  distance:    0.0397716
  band:
  - # 1
    frequency:    0.2923990117
  - # 2
    frequency:    0.2923990117
  - # 3
    frequency:    0.5020057821
  - # 4
    frequency:    1.3904018210
  - # 5
    frequency:    1.3904018210
  - # 6
    frequency:    1.7017126947
  - # 7
    frequency:    2.3639050244
  - # 8
    frequency:    2.3639050244
  - # 9
    frequency:    2.9141471195

- q-position: [    0.0000000,    0.0000000,    0.1500000 ]
  distance:    0.0426124
  band:
  - # 1
    frequency:    0.3130613552
  - # 2
    frequency:    0.3130613552
  - # 3
    frequency:    0.5358725251
  - # 4
    frequency:    1.3847358392
  - # 5
    frequency:    1.3847358392
  - # 6
    frequency:    1.7011732137
  - # 7
    frequency:    2.3567069466
  - # 8
    frequency:    2.3567069466
  - # 9
    frequency:    2.9084280810

- q-position: [    0.0000000,    0.0000000,    0.1600000 ]
  distance:    0.0454533
  band:
  - # 1
    frequency:    0.3336761050
  - # 2
    frequency:    0.3336761050
  - # 3
    frequency:    0.5693337226
  - # 4
    frequency:    1.3786940138
  - # 5
    frequency:    1.3786940138
  - # 6
    frequency:    1.7005526645
  - # 7
    frequency:    2.3491488621
  - # 8
    frequency:    2.3491488621
  - # 9
    frequency:    2.9024297089

- q-position: [    0.0000000,    0.0000000,    0.1700000 ]
  distance:    0.0482941
  band:
  - # 1
    frequency:    0.3542397752
  - # 2
    frequency:    0.3542397752
  - # 3
    frequency:    0.6023642810
  - # 4
    frequency:    1.3722792622
  - # 5
    frequency:    1.3722792622
  - # 6
    frequency:    1.6998433203
  - # 7
    frequency:    2.3412572614
  - # 8
    frequency:    2.3412572614
  - # 9
    frequency:    2.8961740163

- q-position: [    0.0000000,    0.0000000,    0.1800000 ]
  distance:    0.0511349
  band:
  - # 1
    frequency:    0.3747488151
  - # 2
    frequency:    0.3747488151
  - # 3
    frequency:    0.6349393921
  - # 4
    frequency:    1.3654946699
  - # 5
    frequency:    1.3654946699
  - # 6
    frequency:    1.6990373099
  - # 7
    frequency:    2.3330600670
  - # 8
    frequency:    2.3330600671
  - # 9
    frequency:    2.8896841024

- q-position: [    0.0000000,    0.0000000,    0.1900000 ]
  distance:    0.0539757
  band:
  - # 1
    frequency:    0.3951996072
  - # 2
    frequency:    0.3951996072
  - # 3
    frequency:    0.6670345186
  - # 4
    frequency:    1.3583434864
  - # 5
    frequency:    1.3583434864
  - # 6
    frequency:    1.6981266921
  - # 7
    frequency:    2.3245865719
  - # 8
    frequency:    2.3245865719
  - # 9
    frequency:    2.8829840868

- q-position: [    0.0000000,    0.0000000,    0.2000000 ]
  distance:    0.0568166
  band:
  - # 1
    frequency:    0.4155884647
  - # 2
    frequency:    0.4155884647
  - # 3
    frequency:    0.6986253708
  - # 4
    frequency:    1.3508291218
  - # 5
    frequency:    1.3508291219
  - # 6
    frequency:    1.6971035397
  - # 7
    frequency:    2.3158673714
  - # 8
    frequency:    2.3158673714
  - # 9
    frequency:    2.8760990373

- q-position: [    0.0000000,    0.0000000,    0.2100000 ]
  distance:    0.0596574
  band:
  - # 1
    frequency:    0.4359116291
  - # 2
    frequency:    0.4359116291
  - # 3
    frequency:    0.7296878745
  - # 4
    frequency:    1.3429551435
  - # 5
    frequency:    1.3429551435
  - # 6
    frequency:    1.6959600319
  - # 7
    frequency:    2.3069342887
  - # 8
    frequency:    2.3069342887
  - # 9
    frequency:    2.8690548932

- q-position: [    0.0000000,    0.0000000,    0.2200000 ]
  distance:    0.0624982
  band:
  - # 1
    frequency:    0.4561652683
  - # 2
    frequency:    0.4561652683
  - # 3
    frequency:    0.7601981275
  - # 4
    frequency:    1.3347252715
  - # 5
    frequency:    1.3347252715
  - # 6
    frequency:    1.6946885576
  - # 7
    frequency:    2.2978202928
  - # 8
    frequency:    2.2978202928
  - # 9
    frequency:    2.8618783839

- q-position: [    0.0000000,    0.0000000,    0.2300000 ]
  distance:    0.0653391
  band:
  - # 1
    frequency:    0.4763454736
  - # 2
    frequency:    0.4763454736
  - # 3
    frequency:    0.7901323437
  - # 4
    frequency:    1.3261433755
  - # 5
    frequency:    1.3261433755
  - # 6
    frequency:    1.6932818307
  - # 7
    frequency:    2.2885594084
  - # 8
    frequency:    2.2885594085
  - # 9
    frequency:    2.8545969415

- q-position: [    0.0000000,    0.0000000,    0.2400000 ]
  distance:    0.0681799
  band:
  - # 1
    frequency:    0.4964482573
  - # 2
    frequency:    0.4964482573
  - # 3
    frequency:    0.8194667821
  - # 4
    frequency:    1.3172134708
  - # 5
    frequency:    1.3172134708
  - # 6
    frequency:    1.6917330198
  - # 7
    frequency:    2.2791866184
  - # 8
    frequency:    2.2791866185
  - # 9
    frequency:    2.8472386085

- q-position: [    0.0000000,    0.0000000,    0.2500000 ]
  distance:    0.0710207
  band:
  - # 1
    frequency:    0.5164695507
  - # 2
    frequency:    0.5164695507
  - # 3
    frequency:    0.8481776593
  - # 4
    frequency:    1.3079397147
  - # 5
    frequency:    1.3079397147
  - # 6
    frequency:    1.6900358938
  - # 7
    frequency:    2.2697377571
  - # 8
    frequency:    2.2697377572
  - # 9
    frequency:    2.8398319408

- q-position: [    0.0000000,    0.0000000,    0.2600000 ]
  distance:    0.0738615
  band:
  - # 1
    frequency:    0.5364052008
  - # 2
    frequency:    0.5364052008
  - # 3
    frequency:    0.8762410421
  - # 4
    frequency:    1.2983264031
  - # 5
    frequency:    1.2983264031
  - # 6
    frequency:    1.6881849861
  - # 7
    frequency:    2.2602493957
  - # 8
    frequency:    2.2602493958
  - # 9
    frequency:    2.8324059050

- q-position: [    0.0000000,    0.0000000,    0.2700000 ]
  distance:    0.0767024
  band:
  - # 1
    frequency:    0.5562509676
  - # 2
    frequency:    0.5562509676
  - # 3
    frequency:    0.9036327173
  - # 4
    frequency:    1.2883779673
  - # 5
    frequency:    1.2883779674
  - # 6
    frequency:    1.6861757803
  - # 7
    frequency:    2.2507587180
  - # 8
    frequency:    2.2507587180
  - # 9
    frequency:    2.8249897710

- q-position: [    0.0000000,    0.0000000,    0.2800000 ]
  distance:    0.0795432
  band:
  - # 1
    frequency:    0.5760025208
  - # 2
    frequency:    0.5760025208
  - # 3
    frequency:    0.9303280351
  - # 4
    frequency:    1.2780989719
  - # 5
    frequency:    1.2780989719
  - # 6
    frequency:    1.6840049213
  - # 7
    frequency:    2.2413033874
  - # 8
    frequency:    2.2413033875
  - # 9
    frequency:    2.8176130004

- q-position: [    0.0000000,    0.0000000,    0.2900000 ]
  distance:    0.0823840
  band:
  - # 1
    frequency:    0.5956554361
  - # 2
    frequency:    0.5956554361
  - # 3
    frequency:    0.9563017232
  - # 4
    frequency:    1.2674941120
  - # 5
    frequency:    1.2674941120
  - # 6
    frequency:    1.6816704547
  - # 7
    frequency:    2.2319214054
  - # 8
    frequency:    2.2319214055
  - # 9
    frequency:    2.8103051301

- q-position: [    0.0000000,    0.0000000,    0.3000000 ]
  distance:    0.0852248
  band:
  - # 1
    frequency:    0.6152051904
  - # 2
    frequency:    0.6152051904
  - # 3
    frequency:    0.9815276662
  - # 4
    frequency:    1.2565682129
  - # 5
    frequency:    1.2565682129
  - # 6
    frequency:    1.6791720982
  - # 7
    frequency:    2.2226509602
  - # 8
    frequency:    2.2226509602
  - # 9
    frequency:    2.8030956516

- q-position: [    0.0000000,    0.0000000,    0.3100000 ]
  distance:    0.0880657
  band:
  - # 1
    frequency:    0.6346471557
  - # 2
    frequency:    0.6346471557
  - # 3
    frequency:    1.0059786466
  - # 4
    frequency:    1.2453262302
  - # 5
    frequency:    1.2453262302
  - # 6
    frequency:    1.6765115507
  - # 7
    frequency:    2.2135302668
  - # 8
    frequency:    2.2135302669
  - # 9
    frequency:    2.7960138876

- q-position: [    0.0000000,    0.0000000,    0.3200000 ]
  distance:    0.0909065
  band:
  - # 1
    frequency:    0.6539765922
  - # 2
    frequency:    0.6539765922
  - # 3
    frequency:    1.0296260439
  - # 4
    frequency:    1.2337732520
  - # 5
    frequency:    1.2337732520
  - # 6
    frequency:    1.6736928410
  - # 7
    frequency:    2.2045974000
  - # 8
    frequency:    2.2045974000
  - # 9
    frequency:    2.7890888642

- q-position: [    0.0000000,    0.0000000,    0.3300000 ]
  distance:    0.0937473
  band:
  - # 1
    frequency:    0.6731886372
  - # 2
    frequency:    0.6731886372
  - # 3
    frequency:    1.0524394871
  - # 4
    frequency:    1.2219145040
  - # 5
    frequency:    1.2219145040
  - # 6
    frequency:    1.6707227219
  - # 7
    frequency:    2.1958901176
  - # 8
    frequency:    2.1958901176
  - # 9
    frequency:    2.7823491822

- q-position: [    0.0000000,    0.0000000,    0.3400000 ]
  distance:    0.0965882
  band:
  - # 1
    frequency:    0.6922782919
  - # 2
    frequency:    0.6922782919
  - # 3
    frequency:    1.0743864602
  - # 4
    frequency:    1.2097553588
  - # 5
    frequency:    1.2097553589
  - # 6
    frequency:    1.6676111088
  - # 7
    frequency:    2.1874456785
  - # 8
    frequency:    2.1874456785
  - # 9
    frequency:    2.7758228850

- q-position: [    0.0000000,    0.0000000,    0.3500000 ]
  distance:    0.0994290
  band:
  - # 1
    frequency:    0.7112404010
  - # 2
    frequency:    0.7112404010
  - # 3
    frequency:    1.0954318595
  - # 4
    frequency:    1.1973013504
  - # 5
    frequency:    1.1973013504
  - # 6
    frequency:    1.6643715641
  - # 7
    frequency:    2.1793006540
  - # 8
    frequency:    2.1793006540
  - # 9
    frequency:    2.7695373264

- q-position: [    0.0000000,    0.0000000,    0.3600000 ]
  distance:    0.1022698
  band:
  - # 1
    frequency:    0.7300696250
  - # 2
    frequency:    0.7300696250
  - # 3
    frequency:    1.1155375100
  - # 4
    frequency:    1.1845581982
  - # 5
    frequency:    1.1845581982
  - # 6
    frequency:    1.6610218215
  - # 7
    frequency:    2.1714907341
  - # 8
    frequency:    2.1714907341
  - # 9
    frequency:    2.7635190375

- q-position: [    0.0000000,    0.0000000,    0.3700000 ]
  distance:    0.1051106
  band:
  - # 1
    frequency:    0.7487603981
  - # 2
    frequency:    0.7487603981
  - # 3
    frequency:    1.1346616527
  - # 4
    frequency:    1.1715318444
  - # 5
    frequency:    1.1715318444
  - # 6
    frequency:    1.6575843365
  - # 7
    frequency:    2.1640505310
  - # 8
    frequency:    2.1640505310
  - # 9
    frequency:    2.7577935949

- q-position: [    0.0000000,    0.0000000,    0.3800000 ]
  distance:    0.1079515
  band:
  - # 1
    frequency:    0.7673068649
  - # 2
    frequency:    0.7673068649
  - # 3
    frequency:    1.1527584268
  - # 4
    frequency:    1.1582285130
  - # 5
    frequency:    1.1582285130
  - # 6
    frequency:    1.6540868397
  - # 7
    frequency:    2.1570133802
  - # 8
    frequency:    2.1570133803
  - # 9
    frequency:    2.7523854899

- q-position: [    0.0000000,    0.0000000,    0.3900000 ]
  distance:    0.1107923
  band:
  - # 1
    frequency:    0.7857027831
  - # 2
    frequency:    0.7857027831
  - # 3
    frequency:    1.1446548038
  - # 4
    frequency:    1.1446548038
  - # 5
    frequency:    1.1697773866
  - # 6
    frequency:    1.6505628533
  - # 7
    frequency:    2.1504111422
  - # 8
    frequency:    2.1504111422
  - # 9
    frequency:    2.7473180003

- q-position: [    0.0000000,    0.0000000,    0.4000000 ]
  distance:    0.1136331
  band:
  - # 1
    frequency:    0.8039413655
  - # 2
    frequency:    0.8039413655
  - # 3
    frequency:    1.1308178465
  - # 4
    frequency:    1.1308178466
  - # 5
    frequency:    1.1856631153
  - # 6
    frequency:    1.6470521088
  - # 7
    frequency:    2.1442740050
  - # 8
    frequency:    2.1442740051
  - # 9
    frequency:    2.7426130661

- q-position: [    0.0000000,    0.0000000,    0.4100000 ]
  distance:    0.1164740
  band:
  - # 1
    frequency:    0.8220150178
  - # 2
    frequency:    0.8220150178
  - # 3
    frequency:    1.1167255595
  - # 4
    frequency:    1.1167255595
  - # 5
    frequency:    1.2003550222
  - # 6
    frequency:    1.6436007784
  - # 7
    frequency:    2.1386302921
  - # 8
    frequency:    2.1386302922
  - # 9
    frequency:    2.7382911697

- q-position: [    0.0000000,    0.0000000,    0.4200000 ]
  distance:    0.1193148
  band:
  - # 1
    frequency:    0.8399148798
  - # 2
    frequency:    0.8399148798
  - # 3
    frequency:    1.1023871057
  - # 4
    frequency:    1.1023871057
  - # 5
    frequency:    1.2137874432
  - # 6
    frequency:    1.6402614005
  - # 7
    frequency:    2.1335062755
  - # 8
    frequency:    2.1335062755
  - # 9
    frequency:    2.7343712219

- q-position: [    0.0000000,    0.0000000,    0.4300000 ]
  distance:    0.1221556
  band:
  - # 1
    frequency:    0.8576299772
  - # 2
    frequency:    0.8576299772
  - # 3
    frequency:    1.0878137376
  - # 4
    frequency:    1.0878137376
  - # 5
    frequency:    1.2258901900
  - # 6
    frequency:    1.6370923547
  - # 7
    frequency:    2.1289259978
  - # 8
    frequency:    2.1289259978
  - # 9
    frequency:    2.7308704548

- q-position: [    0.0000000,    0.0000000,    0.4400000 ]
  distance:    0.1249964
  band:
  - # 1
    frequency:    0.8751455406
  - # 2
    frequency:    0.8751455406
  - # 3
    frequency:    1.0730204765
  - # 4
    frequency:    1.0730204765
  - # 5
    frequency:    1.2365897097
  - # 6
    frequency:    1.6341567238
  - # 7
    frequency:    2.1249111050
  - # 8
    frequency:    2.1249111051
  - # 9
    frequency:    2.7278043226

- q-position: [    0.0000000,    0.0000000,    0.4500000 ]
  distance:    0.1278373
  band:
  - # 1
    frequency:    0.8924393572
  - # 2
    frequency:    0.8924393572
  - # 3
    frequency:    1.0580297580
  - # 4
    frequency:    1.0580297580
  - # 5
    frequency:    1.2458110003
  - # 6
    frequency:    1.6315203971
  - # 7
    frequency:    2.1214806929
  - # 8
    frequency:    2.1214806930
  - # 9
    frequency:    2.7251864116

- q-position: [    0.0000000,    0.0000000,    0.4600000 ]
  distance:    0.1306781
  band:
  - # 1
    frequency:    0.9094728647
  - # 2
    frequency:    0.9094728647
  - # 3
    frequency:    1.0428803360
  - # 4
    frequency:    1.0428803360
  - # 5
    frequency:    1.2534803661
  - # 6
    frequency:    1.6292493317
  - # 7
    frequency:    2.1186511679
  - # 8
    frequency:    2.1186511680
  - # 9
    frequency:    2.7230283593

- q-position: [    0.0000000,    0.0000000,    0.4700000 ]
  distance:    0.1335189
  band:
  - # 1
    frequency:    0.9261655496
  - # 2
    frequency:    0.9261655496
  - # 3
    frequency:    1.0276528833
  - # 4
    frequency:    1.0276528833
  - # 5
    frequency:    1.2595289677
  - # 6
    frequency:    1.6274060159
  - # 7
    frequency:    2.1164361261
  - # 8
    frequency:    2.1164361261
  - # 9
    frequency:    2.7213397853

- q-position: [    0.0000000,    0.0000000,    0.4800000 ]
  distance:    0.1363598
  band:
  - # 1
    frequency:    0.9423014535
  - # 2
    frequency:    0.9423014535
  - # 3
    frequency:    1.0125634833
  - # 4
    frequency:    1.0125634833
  - # 5
    frequency:    1.2638969359
  - # 6
    frequency:    1.6260453678
  - # 7
    frequency:    2.1148462511
  - # 8
    frequency:    2.1148462512
  - # 9
    frequency:    2.7201282329

- q-position: [    0.0000000,    0.0000000,    0.4900000 ]
  distance:    0.1392006
  band:
  - # 1
    frequency:    0.9570336429
  - # 2
    frequency:    0.9570336429
  - # 3
    frequency:    0.9984591600
  - # 4
    frequency:    0.9984591601
  - # 5
    frequency:    1.2665376019
  - # 6
    frequency:    1.6252105128
  - # 7
    frequency:    2.1138892333
  - # 8
    frequency:    2.1138892334
  - # 9
    frequency:    2.7193991236

- q-position: [    0.0000000,    0.0000000,    0.5000000 ]
  distance:    0.1420414
  band:
  - # 1
    frequency:    0.9651819260
  - # 2
    frequency:    0.9651819260
  - # 3
    frequency:    0.9905201596
  - # 4
    frequency:    0.9905201596
  - # 5
    frequency:    1.2674212305
  - # 6
    frequency:    1.6249290579
  - # 7
    frequency:    2.1135697107
  - # 8
    frequency:    2.1135697108
  - # 9
    frequency:    2.7191557235

- q-position: [    0.0000000,    0.0000000,    0.5000000 ]
  distance:    0.1420414
  band:
  - # 1
    frequency:    0.9651819260
  - # 2
    frequency:    0.9651819260
  - # 3
    frequency:    0.9905201596
  - # 4
    frequency:    0.9905201596
  - # 5
    frequency:    1.2674212305
  - # 6
    frequency:    1.6249290579
  - # 7
    frequency:    2.1135697107
  - # 8
    frequency:    2.1135697108
  - # 9
    frequency:    2.7191557235

- q-position: [    0.0066667,    0.0066667,    0.4900000 ]
  distance:    0.1472133
  band:
  - # 1
    frequency:    0.9575816376
  - # 2
    frequency:    0.9579417961
  - # 3
    frequency:    1.0000583285
  - # 4
    frequency:    1.0005632651
  - # 5
    frequency:    1.2682498070
  - # 6
    frequency:    1.6257725714
  - # 7
    frequency:    2.1155123255
  - # 8
    frequency:    2.1162926727
  - # 9
    frequency:    2.7188557964

- q-position: [    0.0133333,    0.0133333,    0.4800000 ]
  distance:    0.1523852
  band:
  - # 1
    frequency:    0.9454153359
  - # 2
    frequency:    0.9470700052
  - # 3
    frequency:    1.0180309560
  - # 4
    frequency:    1.0195563960
  - # 5
    frequency:    1.2709484436
  - # 6
    frequency:    1.6282803011
  - # 7
    frequency:    2.1213173486
  - # 8
    frequency:    2.1244141424
  - # 9
    frequency:    2.7179538490

- q-position: [    0.0200000,    0.0200000,    0.4700000 ]
  distance:    0.1575572
  band:
  - # 1
    frequency:    0.9341140591
  - # 2
    frequency:    0.9379570214
  - # 3
    frequency:    1.0389840508
  - # 4
    frequency:    1.0412359699
  - # 5
    frequency:    1.2761713878
  - # 6
    frequency:    1.6323868943
  - # 7
    frequency:    2.1309168500
  - # 8
    frequency:    2.1377941314
  - # 9
    frequency:    2.7164434329

- q-position: [    0.0266667,    0.0266667,    0.4600000 ]
  distance:    0.1627291
  band:
  - # 1
    frequency:    0.9245305862
  - # 2
    frequency:    0.9312508391
  - # 3
    frequency:    1.0620235025
  - # 4
    frequency:    1.0634958770
  - # 5
    frequency:    1.2850280317
  - # 6
    frequency:    1.6379932961
  - # 7
    frequency:    2.1441993655
  - # 8
    frequency:    2.1562066110
  - # 9
    frequency:    2.7143139658

- q-position: [    0.0333333,    0.0333333,    0.4500000 ]
  distance:    0.1679010
  band:
  - # 1
    frequency:    0.9168633109
  - # 2
    frequency:    0.9268847540
  - # 3
    frequency:    1.0844859438
  - # 4
    frequency:    1.0868874948
  - # 5
    frequency:    1.2989768961
  - # 6
    frequency:    1.6449803971
  - # 7
    frequency:    2.1610124497
  - # 8
    frequency:    2.1793496280
  - # 9
    frequency:    2.7115509770

- q-position: [    0.0400000,    0.0400000,    0.4400000 ]
  distance:    0.1730729
  band:
  - # 1
    frequency:    0.9111459636
  - # 2
    frequency:    0.9246087003
  - # 3
    frequency:    1.1025030658
  - # 4
    frequency:    1.1134531205
  - # 5
    frequency:    1.3194245465
  - # 6
    frequency:    1.6532266674
  - # 7
    frequency:    2.1811661202
  - # 8
    frequency:    2.2068579859
  - # 9
    frequency:    2.7081364436

- q-position: [    0.0466667,    0.0466667,    0.4300000 ]
  distance:    0.1782448
  band:
  - # 1
    frequency:    0.9073388875
  - # 2
    frequency:    0.9241093751
  - # 3
    frequency:    1.1165397852
  - # 4
    frequency:    1.1416424961
  - # 5
    frequency:    1.3470738180
  - # 6
    frequency:    1.6626300109
  - # 7
    frequency:    2.2044370972
  - # 8
    frequency:    2.2383173164
  - # 9
    frequency:    2.7040492115

- q-position: [    0.0533333,    0.0533333,    0.4200000 ]
  distance:    0.1834167
  band:
  - # 1
    frequency:    0.9053569391
  - # 2
    frequency:    0.9250565987
  - # 3
    frequency:    1.1266376895
  - # 4
    frequency:    1.1713940463
  - # 5
    frequency:    1.3815298692
  - # 6
    frequency:    1.6731363659
  - # 7
    frequency:    2.2305737291
  - # 8
    frequency:    2.2732783887
  - # 9
    frequency:    2.6992654955

- q-position: [    0.0600000,    0.0600000,    0.4100000 ]
  distance:    0.1885886
  band:
  - # 1
    frequency:    0.9050835980
  - # 2
    frequency:    0.9271280977
  - # 3
    frequency:    1.1336190534
  - # 4
    frequency:    1.2026496944
  - # 5
    frequency:    1.4215292661
  - # 6
    frequency:    1.6847818384
  - # 7
    frequency:    2.2593014647
  - # 8
    frequency:    2.3112706798
  - # 9
    frequency:    2.6937594466

- q-position: [    0.0666667,    0.0666667,    0.4000000 ]
  distance:    0.1937605
  band:
  - # 1
    frequency:    0.9063814489
  - # 2
    frequency:    0.9300257355
  - # 3
    frequency:    1.1385454931
  - # 4
    frequency:    1.2353476850
  - # 5
    frequency:    1.4654148428
  - # 6
    frequency:    1.6977630418
  - # 7
    frequency:    2.2903286879
  - # 8
    frequency:    2.3518144970
  - # 9
    frequency:    2.6875037794

- q-position: [    0.0733333,    0.0733333,    0.3900000 ]
  distance:    0.1989324
  band:
  - # 1
    frequency:    0.9091011984
  - # 2
    frequency:    0.9334877777
  - # 3
    frequency:    1.1423655148
  - # 4
    frequency:    1.2694184305
  - # 5
    frequency:    1.5113624914
  - # 6
    frequency:    1.7125634319
  - # 7
    frequency:    2.3233526905
  - # 8
    frequency:    2.3944312407
  - # 9
    frequency:    2.6804704499

- q-position: [    0.0800000,    0.0800000,    0.3800000 ]
  distance:    0.2041044
  band:
  - # 1
    frequency:    0.9130894348
  - # 2
    frequency:    0.9372988307
  - # 3
    frequency:    1.1458055866
  - # 4
    frequency:    1.3047825464
  - # 5
    frequency:    1.5572689738
  - # 6
    frequency:    1.7301713866
  - # 7
    frequency:    2.3580655362
  - # 8
    frequency:    2.4386516612
  - # 9
    frequency:    2.6726313760

- q-position: [    0.0866667,    0.0866667,    0.3700000 ]
  distance:    0.2092763
  band:
  - # 1
    frequency:    0.9181949442
  - # 2
    frequency:    0.9412974144
  - # 3
    frequency:    1.1493781894
  - # 4
    frequency:    1.3413506124
  - # 5
    frequency:    1.6004755333
  - # 6
    frequency:    1.7523432157
  - # 7
    frequency:    2.3941595772
  - # 8
    frequency:    2.4840221582
  - # 9
    frequency:    2.6639592071

- q-position: [    0.0933333,    0.0933333,    0.3600000 ]
  distance:    0.2144482
  band:
  - # 1
    frequency:    0.9242734529
  - # 2