24   
2    

1    
  0.0131822178785642   0.0000000000000000   0.0150409152581238
  -0.0019171696    0.0000001904   -0.0021621504
   0.0004924304    0.0000000304   -0.0000204804
   0.0000933704   -0.0002304996   -0.0000205704
   0.0000929204    0.0002305704   -0.0000207904
  -0.0000225496   -0.0000000096    0.0002030696
   0.0000015204   -0.0000001096   -0.0000081004
   0.0000019904    0.0000001804   -0.0000083104
   0.0000018304   -0.0000003596   -0.0000078904
  -0.0000308696    0.0002557404    0.0001595896
   0.0000631604    0.0000001204    0.0000378096
   0.0003682704   -0.0002306096    0.0002797696
  -0.0000781096   -0.0000273896    0.0000439896
  -0.0000299096   -0.0002510196    0.0001567196
   0.0000627204    0.0000001004    0.0000355596
  -0.0000795596    0.0000285604    0.0000466496
   0.0003519004    0.0002203504    0.0002624796
   0.0003683404    0.0002306104    0.0002797696
  -0.0000780396    0.0000273504    0.0000439996
   0.0000632804   -0.0000000896    0.0000378096
  -0.0000308696   -0.0002557296    0.0001596196
  -0.0000795196   -0.0000285296    0.0000466596
   0.0003519504   -0.0002203396    0.0002624996
   0.0000627804   -0.0000000996    0.0000355696
  -0.0000298696    0.0002509804    0.0001567296

9    
  0.0131822178785642   0.0000000000000000   0.0150409152581238
  -0.0000293496    0.0001452500    0.0001585592
   0.0000628704    0.0000001400    0.0000397792
   0.0002597704   -0.0001670400    0.0003437692
   0.0000119104    0.0000235200   -0.0000309108
  -0.0000302796   -0.0001521900    0.0001574792
   0.0000644904   -0.0000010500    0.0000343492
   0.0000130804   -0.0000251400   -0.0000371408
   0.0002798104    0.0001794600    0.0003568492
  -0.0041022196    0.0000349100   -0.0029190908
   0.0012568004    0.0000075500   -0.0001520808
   0.0005174904   -0.0004257100   -0.0001497008
   0.0005248104    0.0004235300   -0.0001568308
   0.0000093504    0.0000003600    0.0001020192
  -0.0000757396    0.0000002100   -0.0000476008
  -0.0000744896    0.0000023400   -0.0000557708
  -0.0000737496    0.0000004100   -0.0000383108
   0.0007273004   -0.0003151800    0.0005554692
   0.0006762504    0.0002785800    0.0005667592
   0.0001879204   -0.0000057500    0.0005625492
  -0.0003905596   -0.0000015200    0.0003031892
   0.0000285304    0.0000271300    0.0001366192
   0.0000288604   -0.0000292300    0.0001169092
   0.0000775604   -0.0000006100    0.0001261692
   0.0000495804    0.0000000300    0.0000269692
