
     Program PWSCF v.7.1 starts on 20Oct2023 at 12:28:14 

     This program is part of the open-source Quantum ESPRESSO suite
     for quantum simulation of materials; please cite
         "P. Giannozzi et al., J. Phys.:Condens. Matter 21 395502 (2009);
         "P. Giannozzi et al., J. Phys.:Condens. Matter 29 465901 (2017);
         "P. Giannozzi et al., J. Chem. Phys. 152 154105 (2020);
          URL http://www.quantum-espresso.org", 
     in publications or presentations arising from this work. More details at
     http://www.quantum-espresso.org/quote

     Parallel version (MPI), running on    32 processors

     MPI processes distributed on     2 nodes
     36795 MiB available memory on the printing compute node when the environment starts
 
     Reading input from MgB2-002.in

     Current dimensions of program PWSCF are:
     Max number of different atomic species (ntypx) = 10
     Max number of k-points (npk) =  40000
     Max angular momentum in pseudopotentials (lmaxx) =  4
     file Mg.pbe-spn-kjpaw_psl.1.0.0.UPF: wavefunction(s)  2S renormalized
 
     R & G space division:  proc/nbgrp/npool/nimage =      32
     Subspace diagonalization in iterative solution of the eigenvalue problem:
     a serial algorithm will be used

 
     Parallelization info
     --------------------
     sticks:   dense  smooth     PW     G-vecs:    dense   smooth      PW
     Min         176     105     29                12144     5643     845
     Max         177     106     30                12148     5646     848
     Sum        5635    3367    955               388645   180603   27121
 
     Using Slab Decomposition
 


     bravais-lattice index     =            0
     lattice parameter (alat)  =      11.6600  a.u.
     unit-cell volume          =    1566.4290 (a.u.)^3
     number of atoms/cell      =           24
     number of atomic types    =            2
     number of electrons       =       128.00
     number of Kohn-Sham states=           77
     kinetic-energy cutoff     =      90.0000  Ry
     charge density cutoff     =     600.0000  Ry
     scf convergence threshold =      1.0E-07
     mixing beta               =       0.7000
     number of iterations used =           12  local-TF  mixing
     Exchange-correlation= SLA  PW   PBX  PBC
                           (   1   4   3   4   0   0   0)

     celldm(1)=  11.659988  celldm(2)=   0.000000  celldm(3)=   0.000000
     celldm(4)=   0.000000  celldm(5)=   0.000000  celldm(6)=   0.000000

     crystal axes: (cart. coord. in units of alat)
               a(1) = (   1.000000   0.000000   0.000000 )  
               a(2) = (  -0.500000   0.866025   0.000000 )  
               a(3) = (   0.000000   0.000000   1.141000 )  

     reciprocal axes: (cart. coord. in units 2 pi/alat)
               b(1) = (  1.000000  0.577350  0.000000 )  
               b(2) = (  0.000000  1.154701  0.000000 )  
               b(3) = (  0.000000  0.000000  0.876424 )  


     PseudoPot. # 1 for Mg read from file:
     /home/sci/lib/pslibrary.1.0.0/pbe/PSEUDOPOTENTIALS/Mg.pbe-spn-kjpaw_psl.1.0.0.UPF
     MD5 check sum: 04f73a28e21b6db80bf9e35fa60c0604
     Pseudo is Projector augmented-wave + core cor, Zval = 10.0
     Generated using &quot;atomic&quot; code by A. Dal Corso  v.6.4.1
     Shape of augmentation charge: PSQ
     Using radial grid of 1129 points,  4 beta functions with: 
                l(1) =   0
                l(2) =   0
                l(3) =   1
                l(4) =   1
     Q(r) pseudized with 0 coefficients 


     PseudoPot. # 2 for B  read from file:
     /home/sci/lib/pslibrary.1.0.0/pbe/PSEUDOPOTENTIALS/B.pbe-n-kjpaw_psl.1.0.0.UPF
     MD5 check sum: 835105b2c91e2aa59783559523f8db7c
     Pseudo is Projector augmented-wave + core cor, Zval =  3.0
     Generated using &quot;atomic&quot; code by A. Dal Corso  v.6.4.1
     Shape of augmentation charge: PSQ
     Using radial grid of 1059 points,  4 beta functions with: 
                l(1) =   0
                l(2) =   0
                l(3) =   1
                l(4) =   1
     Q(r) pseudized with 0 coefficients 


     atomic species   valence    mass     pseudopotential
        Mg            10.00    24.30500     Mg( 1.00)
        B              3.00    10.81100     B ( 1.00)

     No symmetry found



   Cartesian axes

     site n.     atom                  positions (alat units)
         1           Mg  tau(   1) = (   0.0000000   0.0000000   0.0000000  )
         2           Mg  tau(   2) = (   0.5000000   0.0000000   0.0000000  )
         3           Mg  tau(   3) = (  -0.2500000   0.4330127   0.0000000  )
         4           Mg  tau(   4) = (   0.2500000   0.4330127   0.0000000  )
         5           Mg  tau(   5) = (   0.0000000   0.0000000   0.5705002  )
         6           Mg  tau(   6) = (   0.5000000   0.0000000   0.5705002  )
         7           Mg  tau(   7) = (  -0.2500000   0.4330127   0.5705002  )
         8           Mg  tau(   8) = (   0.2500000   0.4330127   0.5705002  )
         9           B   tau(   9) = (   0.0011306   0.2886751   0.2865400  )
        10           B   tau(  10) = (   0.5000000   0.2886751   0.2852501  )
        11           B   tau(  11) = (  -0.2500000   0.7216878   0.2852501  )
        12           B   tau(  12) = (   0.2500000   0.7216878   0.2852501  )
        13           B   tau(  13) = (  -0.0000000   0.2886751   0.8557503  )
        14           B   tau(  14) = (   0.5000000   0.2886751   0.8557503  )
        15           B   tau(  15) = (  -0.2500000   0.7216878   0.8557503  )
        16           B   tau(  16) = (   0.2500000   0.7216878   0.8557503  )
        17           B   tau(  17) = (   0.2500000   0.1443376   0.2852501  )
        18           B   tau(  18) = (   0.7500000   0.1443376   0.2852501  )
        19           B   tau(  19) = (  -0.0000000   0.5773503   0.2852501  )
        20           B   tau(  20) = (   0.5000000   0.5773503   0.2852501  )
        21           B   tau(  21) = (   0.2500000   0.1443376   0.8557503  )
        22           B   tau(  22) = (   0.7500000   0.1443376   0.8557503  )
        23           B   tau(  23) = (  -0.0000000   0.5773503   0.8557503  )
        24           B   tau(  24) = (   0.5000000   0.5773503   0.8557503  )

     number of k points=   868  Gaussian smearing, width (Ry)=  0.0010

     Number of k-points >= 100: set verbosity='high' to print them.

     Dense  grid:   388645 G-vectors     FFT dimensions: (  96,  96, 108)

     Smooth grid:   180603 G-vectors     FFT dimensions: (  72,  72,  81)

     Estimated max dynamical RAM per process >     748.99 MB

     Estimated total dynamical RAM >      23.41 GB

     Check: negative core charge=   -0.000002

     Initial potential from superposition of free atoms

     starting charge     127.9881, renormalised to     128.0000
     Starting wfcs are  128 randomized atomic wfcs
     Checking if some PAW data can be deallocated... 

     total cpu time spent up to now is       75.6 secs

     Self-consistent Calculation

     iteration #  1     ecut=    90.00 Ry     beta= 0.70
     Davidson diagonalization with overlap
     ethr =  1.00E-02,  avg # of iterations =  3.3

     total cpu time spent up to now is      219.3 secs

     total energy              =   -1314.63368638 Ry
     estimated scf accuracy    <       2.68625496 Ry

     iteration #  2     ecut=    90.00 Ry     beta= 0.70
     Davidson diagonalization with overlap
     ethr =  2.10E-03,  avg # of iterations =  2.3

     total cpu time spent up to now is      350.8 secs

     total energy              =   -1314.42182309 Ry
     estimated scf accuracy    <       0.70821219 Ry

     iteration #  3     ecut=    90.00 Ry     beta= 0.70
     Davidson diagonalization with overlap
     ethr =  5.53E-04,  avg # of iterations =  4.9

     total cpu time spent up to now is      545.5 secs

     total energy              =   -1314.74192876 Ry
     estimated scf accuracy    <       0.05827600 Ry

     iteration #  4     ecut=    90.00 Ry     beta= 0.70
     Davidson diagonalization with overlap
     c_bands:  1 eigenvalues not converged
     c_bands:  2 eigenvalues not converged
     c_bands:  1 eigenvalues not converged
     c_bands:  2 eigenvalues not converged
     c_bands:  1 eigenvalues not converged
     c_bands:  1 eigenvalues not converged
     c_bands:  1 eigenvalues not converged
     c_bands:  1 eigenvalues not converged
     ethr =  4.55E-05,  avg # of iterations =  7.3

     total cpu time spent up to now is      744.6 secs

     total energy              =   -1314.75608270 Ry
     estimated scf accuracy    <       0.02967890 Ry

     iteration #  5     ecut=    90.00 Ry     beta= 0.70
     Davidson diagonalization with overlap
     c_bands:  1 eigenvalues not converged
     c_bands:  1 eigenvalues not converged
     c_bands:  2 eigenvalues not converged
     c_bands:  2 eigenvalues not converged
     c_bands:  2 eigenvalues not converged
     c_bands:  1 eigenvalues not converged
     c_bands:  1 eigenvalues not converged
     ethr =  2.32E-05,  avg # of iterations =  4.1

     total cpu time spent up to now is      900.9 secs

     total energy              =   -1314.76090534 Ry
     estimated scf accuracy    <       0.00048950 Ry

     iteration #  6     ecut=    90.00 Ry     beta= 0.70
     Davidson diagonalization with overlap
     c_bands:  1 eigenvalues not converged
     c_bands:  2 eigenvalues not converged
     c_bands:  3 eigenvalues not converged
     c_bands:  1 eigenvalues not converged
     c_bands:  1 eigenvalues not converged
     c_bands:  1 eigenvalues not converged
     c_bands:  1 eigenvalues not converged
     c_bands:  2 eigenvalues not converged
     c_bands:  1 eigenvalues not converged
     c_bands:  2 eigenvalues not converged
     c_bands:  1 eigenvalues not converged
     c_bands:  1 eigenvalues not converged
     c_bands:  1 eigenvalues not converged
     c_bands:  1 eigenvalues not converged
     c_bands:  3 eigenvalues not converged
     c_bands:  1 eigenvalues not converged
     c_bands:  1 eigenvalues not converged
     c_bands:  1 eigenvalues not converged
     c_bands:  1 eigenvalues not converged
     c_bands:  1 eigenvalues not converged
     c_bands:  2 eigenvalues not converged
     c_bands:  2 eigenvalues not converged
     c_bands:  4 eigenvalues not converged
     c_bands:  1 eigenvalues not converged
     c_bands:  1 eigenvalues not converged
     c_bands:  1 eigenvalues not converged
     c_bands:  1 eigenvalues not converged
     c_bands:  1 eigenvalues not converged
     c_bands:  2 eigenvalues not converged
     c_bands:  1 eigenvalues not converged
     c_bands:  2 eigenvalues not converged
     c_bands:  1 eigenvalues not converged
     c_bands:  1 eigenvalues not converged
     c_bands:  1 eigenvalues not converged
     c_bands:  1 eigenvalues not converged
     c_bands:  1 eigenvalues not converged
     c_bands:  1 eigenvalues not converged
     c_bands:  1 eigenvalues not converged
     c_bands:  1 eigenvalues not converged
     c_bands:  2 eigenvalues not converged
     c_bands:  3 eigenvalues not converged
     c_bands:  1 eigenvalues not converged
     c_bands:  1 eigenvalues not converged
     c_bands:  1 eigenvalues not converged
     c_bands:  1 eigenvalues not converged
     c_bands:  1 eigenvalues not converged
     c_bands:  1 eigenvalues not converged
     c_bands:  1 eigenvalues not converged
     c_bands:  2 eigenvalues not converged
     c_bands:  1 eigenvalues not converged
     c_bands:  1 eigenvalues not converged
     c_bands:  1 eigenvalues not converged
     c_bands:  1 eigenvalues not converged
     c_bands:  1 eigenvalues not converged
     c_bands:  1 eigenvalues not converged
     c_bands:  1 eigenvalues not converged
     c_bands:  1 eigenvalues not converged
     c_bands:  1 eigenvalues not converged
     c_bands:  1 eigenvalues not converged
     c_bands:  1 eigenvalues not converged
     c_bands:  1 eigenvalues not converged
     c_bands:  1 eigenvalues not converged
     c_bands:  1 eigenvalues not converged
     c_bands:  1 eigenvalues not converged
     c_bands:  1 eigenvalues not converged
     c_bands:  1 eigenvalues not converged
     c_bands:  1 eigenvalues not converged
     c_bands:  1 eigenvalues not converged
     c_bands:  1 eigenvalues not converged
     c_bands:  1 eigenvalues not converged
     c_bands:  1 eigenvalues not converged
     c_bands:  2 eigenvalues not converged
     c_bands:  1 eigenvalues not converged
     c_bands:  1 eigenvalues not converged
     c_bands:  1 eigenvalues not converged
     c_bands:  1 eigenvalues not converged
     c_bands:  1 eigenvalues not converged
     c_bands:  1 eigenvalues not converged
     c_bands:  1 eigenvalues not converged
     c_bands:  2 eigenvalues not converged
     c_bands:  1 eigenvalues not converged
     c_bands:  1 eigenvalues not converged
     c_bands:  1 eigenvalues not converged
     c_bands:  1 eigenvalues not converged
     c_bands:  1 eigenvalues not converged
     c_bands:  2 eigenvalues not converged
     c_bands:  1 eigenvalues not converged
     c_bands:  1 eigenvalues not converged
     c_bands:  1 eigenvalues not converged
     c_bands:  1 eigenvalues not converged
     c_bands:  1 eigenvalues not converged
     c_bands:  1 eigenvalues not converged
     c_bands:  1 eigenvalues not converged
     c_bands:  1 eigenvalues not converged
     c_bands:  1 eigenvalues not converged
     c_bands:  1 eigenvalues not converged
     c_bands:  1 eigenvalues not converged
     c_bands:  1 eigenvalues not converged
     c_bands:  1 eigenvalues not converged
     c_bands:  1 eigenvalues not converged
     c_bands:  2 eigenvalues not converged
     c_bands:  2 eigenvalues not converged
     c_bands:  1 eigenvalues not converged
     c_bands:  1 eigenvalues not converged
     c_bands:  1 eigenvalues not converged
     c_bands:  1 eigenvalues not converged
     c_bands:  1 eigenvalues not converged
     c_bands:  1 eigenvalues not converged
     c_bands:  1 eigenvalues not converged
     c_bands:  1 eigenvalues not converged
     c_bands:  1 eigenvalues not converged
     c_bands:  1 eigenvalues not converged
     c_bands:  1 eigenvalues not converged
     c_bands:  1 eigenvalues not converged
     c_bands:  1 eigenvalues not converged
     c_bands:  1 eigenvalues not converged
     c_bands:  1 eigenvalues not converged
     c_bands:  2 eigenvalues not converged
     c_bands:  1 eigenvalues not converged
     c_bands:  2 eigenvalues not converged
     c_bands:  1 eigenvalues not converged
     c_bands:  1 eigenvalues not converged
     c_bands:  1 eigenvalues not converged
     c_bands:  2 eigenvalues not converged
     c_bands:  2 eigenvalues not converged
     c_bands:  2 eigenvalues not converged
     c_bands:  2 eigenvalues not converged
     c_bands:  2 eigenvalues not converged
     c_bands:  2 eigenvalues not converged
     c_bands:  2 eigenvalues not converged
     c_bands:  1 eigenvalues not converged
     c_bands:  1 eigenvalues not converged
     c_bands:  1 eigenvalues not converged
     c_bands:  1 eigenvalues not converged
     c_bands:  2 eigenvalues not converged
     c_bands:  1 eigenvalues not converged
     c_bands:  1 eigenvalues not converged
     c_bands:  1 eigenvalues not converged
     c_bands:  1 eigenvalues not converged
     c_bands:  1 eigenvalues not converged
     c_bands:  1 eigenvalues not converged
     c_bands:  1 eigenvalues not converged
     c_bands:  1 eigenvalues not converged
     c_bands:  1 eigenvalues not converged
     c_bands:  1 eigenvalues not converged
     c_bands:  2 eigenvalues not converged
     c_bands:  1 eigenvalues not converged
     c_bands:  3 eigenvalues not converged
     c_bands:  1 eigenvalues not converged
     c_bands:  1 eigenvalues not converged
     c_bands:  1 eigenvalues not converged
     c_bands:  1 eigenvalues not converged
     c_bands:  1 eigenvalues not converged
     c_bands:  2 eigenvalues not converged
     c_bands:  1 eigenvalues not converged
     c_bands:  1 eigenvalues not converged
     ethr =  3.82E-07,  avg # of iterations = 11.7

     total cpu time spent up to now is     1235.7 secs

     total energy              =   -1314.76182403 Ry
     estimated scf accuracy    <       0.00005711 Ry

     iteration #  7     ecut=    90.00 Ry     beta= 0.70
     Davidson diagonalization with overlap
     c_bands:  2 eigenvalues not converged
     c_bands:  1 eigenvalues not converged
     c_bands:  1 eigenvalues not converged
     c_bands:  1 eigenvalues not converged
     c_bands:  2 eigenvalues not converged
     c_bands:  1 eigenvalues not converged
     c_bands:  1 eigenvalues not converged
     c_bands:  1 eigenvalues not converged
     ethr =  4.46E-08,  avg # of iterations =  5.1

     total cpu time spent up to now is     1413.3 secs

     total energy              =   -1314.76182421 Ry
     estimated scf accuracy    <       0.00009055 Ry

     iteration #  8     ecut=    90.00 Ry     beta= 0.70
     Davidson diagonalization with overlap
     c_bands:  1 eigenvalues not converged
     c_bands:  1 eigenvalues not converged
     c_bands:  1 eigenvalues not converged
     ethr =  4.46E-08,  avg # of iterations =  2.2

     total cpu time spent up to now is     1551.2 secs

     total energy              =   -1314.76182785 Ry
     estimated scf accuracy    <       0.00001172 Ry

     iteration #  9     ecut=    90.00 Ry     beta= 0.70
     Davidson diagonalization with overlap
     c_bands:  1 eigenvalues not converged
     ethr =  9.16E-09,  avg # of iterations =  2.9

     total cpu time spent up to now is     1697.2 secs

     total energy              =   -1314.76182926 Ry
     estimated scf accuracy    <       0.00000138 Ry

     iteration # 10     ecut=    90.00 Ry     beta= 0.70
     Davidson diagonalization with overlap
     ethr =  1.08E-09,  avg # of iterations =  4.1

     total cpu time spent up to now is     1893.0 secs

     total energy              =   -1314.76183001 Ry
     estimated scf accuracy    <       0.00000011 Ry

     iteration # 11     ecut=    90.00 Ry     beta= 0.70
     Davidson diagonalization with overlap
     ethr =  8.33E-11,  avg # of iterations =  2.2

     total cpu time spent up to now is     2018.0 secs

     End of self-consistent calculation

     Number of k-points >= 100: set verbosity='high' to print the bands.

     the Fermi energy is     8.9937 ev

!    total energy              =   -1314.76182996 Ry
     total all-electron energy =     -4000.753526 Ry
     estimated scf accuracy    <       0.00000010 Ry
     smearing contrib. (-TS)   =      -0.00005044 Ry
     internal energy E=F+TS    =   -1314.76177952 Ry

     The total energy is F=E-TS. E is the sum of the following terms:
     one-electron contribution =    -720.45200224 Ry
     hartree contribution      =     389.41054950 Ry
     xc contribution           =    -188.51515408 Ry
     ewald contribution        =    -590.99918587 Ry
     one-center paw contrib.   =    -204.20598683 Ry

     convergence has been achieved in  11 iterations

     Forces acting on atoms (cartesian axes, Ry/au):

     atom    1 type  1   force =    -0.00002935    0.00014525    0.00015856
     atom    2 type  1   force =     0.00006287    0.00000014    0.00003978
     atom    3 type  1   force =     0.00025977   -0.00016704    0.00034377
     atom    4 type  1   force =     0.00001191    0.00002352   -0.00003091
     atom    5 type  1   force =    -0.00003028   -0.00015219    0.00015748
     atom    6 type  1   force =     0.00006449   -0.00000105    0.00003435
     atom    7 type  1   force =     0.00001308   -0.00002514   -0.00003714
     atom    8 type  1   force =     0.00027981    0.00017946    0.00035685
     atom    9 type  2   force =    -0.00410222    0.00003491   -0.00291909
     atom   10 type  2   force =     0.00125680    0.00000755   -0.00015208
     atom   11 type  2   force =     0.00051749   -0.00042571   -0.00014970
     atom   12 type  2   force =     0.00052481    0.00042353   -0.00015683
     atom   13 type  2   force =     0.00000935    0.00000036    0.00010202
     atom   14 type  2   force =    -0.00007574    0.00000021   -0.00004760
     atom   15 type  2   force =    -0.00007449    0.00000234   -0.00005577
     atom   16 type  2   force =    -0.00007375    0.00000041   -0.00003831
     atom   17 type  2   force =     0.00072730   -0.00031518    0.00055547
     atom   18 type  2   force =     0.00067625    0.00027858    0.00056676
     atom   19 type  2   force =     0.00018792   -0.00000575    0.00056255
     atom   20 type  2   force =    -0.00039056   -0.00000152    0.00030319
     atom   21 type  2   force =     0.00002853    0.00002713    0.00013662
     atom   22 type  2   force =     0.00002886   -0.00002923    0.00011691
     atom   23 type  2   force =     0.00007756   -0.00000061    0.00012617
     atom   24 type  2   force =     0.00004958    0.00000003    0.00002697

     Total force =     0.005563     Total SCF correction =     0.000017


     Computing stress (Cartesian axis) and pressure

          total   stress  (Ry/bohr**3)                   (kbar)     P=       -9.39
  -0.00009434  -0.00000063  -0.00000000          -13.88       -0.09       -0.00
  -0.00000063  -0.00009440   0.00000000           -0.09      -13.89        0.00
  -0.00000000   0.00000000  -0.00000265           -0.00        0.00       -0.39


     Writing all to output data dir ./tmp/mgb2.save/
 
     init_run     :     73.73s CPU     75.47s WALL (       1 calls)
     electrons    :   1906.96s CPU   1942.43s WALL (       1 calls)
     forces       :     15.07s CPU     15.36s WALL (       1 calls)
     stress       :     39.69s CPU     40.00s WALL (       1 calls)

     Called by init_run:
     wfcinit      :     73.28s CPU     75.00s WALL (       1 calls)
     potinit      :      0.12s CPU      0.13s WALL (       1 calls)
     hinit0       :      0.16s CPU      0.16s WALL (       1 calls)

     Called by electrons:
     c_bands      :   1722.71s CPU   1753.20s WALL (      11 calls)
     sum_band     :    183.37s CPU    188.28s WALL (      11 calls)
     v_of_rho     :      0.23s CPU      0.23s WALL (      12 calls)
     newd         :      0.20s CPU      0.21s WALL (      12 calls)
     PAW_pot      :      0.32s CPU      0.34s WALL (      12 calls)
     mix_rho      :      0.17s CPU      0.18s WALL (      11 calls)

     Called by c_bands:
     init_us_2    :     14.11s CPU     15.45s WALL (   21700 calls)
     init_us_2:cp :     14.02s CPU     15.39s WALL (   21700 calls)
     cegterg      :   1671.77s CPU   1699.80s WALL (    9548 calls)

     Called by *egterg:
     cdiaghg      :    339.99s CPU    342.57s WALL (   53085 calls)
     h_psi        :   1011.63s CPU   1032.76s WALL (   53953 calls)
     s_psi        :     77.39s CPU     77.79s WALL (   53953 calls)
     g_psi        :      6.53s CPU      6.58s WALL (   43537 calls)

     Called by h_psi:
     h_psi:calbec :     88.58s CPU     90.66s WALL (   53953 calls)
     vloc_psi     :    841.82s CPU    859.71s WALL (   53953 calls)
     add_vuspsi   :     74.90s CPU     75.16s WALL (   53953 calls)

     General routines
     calbec       :    128.92s CPU    132.13s WALL (   67841 calls)
     fft          :      0.16s CPU      0.17s WALL (     179 calls)
     ffts         :      0.09s CPU      0.10s WALL (     269 calls)
     fftw         :    893.78s CPU    912.24s WALL ( 5086450 calls)
     interpolate  :      0.02s CPU      0.02s WALL (      12 calls)
 
     Parallel routines
 
     PWSCF        :  34m23.76s CPU  35m56.87s WALL

 
   This run was terminated on:  13: 4:11  20Oct2023            

=------------------------------------------------------------------------------=
   JOB DONE.
=------------------------------------------------------------------------------=
