phonopy:
  version: 2.17.1
  calculator: qe
  frequency_unit_conversion_factor: 15.633302
  symmetry_tolerance: 1.00000e-05
  configuration:
    cell_filename: "mgb2.scf.in"
    create_displacements: ".true."
    dim: "2 2 2"
    calculator: "qe"

physical_unit:
  atomic_mass: "AMU"
  length: "au"
  force_constants: "Ry/au^2"

space_group:
  type: "P6/mmm"
  number: 191
  Hall_symbol: "-P 6 2"

supercell_matrix:
- [   2,   0,   0 ]
- [   0,   2,   0 ]
- [   0,   0,   2 ]

primitive_cell:
  lattice:
  - [     5.829993983524664,     0.000000000000000,     0.000000000000000 ] # a
  - [    -2.914996991856818,     5.048922893724558,     0.000000000000000 ] # b
  - [     0.000000000000000,     0.000000000000000,     6.652025195559655 ] # c
  points:
  - symbol: Mg # 1
    coordinates: [  0.000000000000000,  0.000000000000000,  0.000000000000000 ]
    mass: 24.305000
  - symbol: B  # 2
    coordinates: [  0.333333343000000,  0.666666687000003,  0.500000000000000 ]
    mass: 10.811000
  - symbol: B  # 3
    coordinates: [  0.666666626999998,  0.333333312999997,  0.500000000000000 ]
    mass: 10.811000
  reciprocal_lattice: # without 2pi
  - [     0.171526763634055,     0.099031023158953,     0.000000000000000 ] # a*
  - [     0.000000000000000,     0.198062046311487,     0.000000000000000 ] # b*
  - [     0.000000000000000,     0.000000000000000,     0.150330158200170 ] # c*

unit_cell:
  lattice:
  - [     5.829993983524664,     0.000000000000000,     0.000000000000000 ] # a
  - [    -2.914996991856818,     5.048922893724558,     0.000000000000000 ] # b
  - [     0.000000000000000,     0.000000000000000,     6.652025195559655 ] # c
  points:
  - symbol: Mg # 1
    coordinates: [  0.000000000000000,  0.000000000000000,  0.000000000000000 ]
    mass: 24.305000
    reduced_to: 1
  - symbol: B  # 2
    coordinates: [  0.333333343000000,  0.666666687000003,  0.500000000000000 ]
    mass: 10.811000
    reduced_to: 2
  - symbol: B  # 3
    coordinates: [  0.666666626999998,  0.333333312999997,  0.500000000000000 ]
    mass: 10.811000
    reduced_to: 3

supercell:
  lattice:
  - [    11.659987967049329,     0.000000000000000,     0.000000000000000 ] # a
  - [    -5.829993983713637,    10.097845787449115,     0.000000000000000 ] # b
  - [     0.000000000000000,     0.000000000000000,    13.304050391119310 ] # c
  points:
  - symbol: Mg # 1
    coordinates: [  0.000000000000000,  0.000000000000000,  0.000000000000000 ]
    mass: 24.305000
    reduced_to: 1
  - symbol: Mg # 2
    coordinates: [  0.500000000000000,  0.000000000000000,  0.000000000000000 ]
    mass: 24.305000
    reduced_to: 1
  - symbol: Mg # 3
    coordinates: [  0.000000000000000,  0.500000000000000,  0.000000000000000 ]
    mass: 24.305000
    reduced_to: 1
  - symbol: Mg # 4
    coordinates: [  0.500000000000000,  0.500000000000000,  0.000000000000000 ]
    mass: 24.305000
    reduced_to: 1
  - symbol: Mg # 5
    coordinates: [  0.000000000000000,  0.000000000000000,  0.500000000000000 ]
    mass: 24.305000
    reduced_to: 1
  - symbol: Mg # 6
    coordinates: [  0.500000000000000,  0.000000000000000,  0.500000000000000 ]
    mass: 24.305000
    reduced_to: 1
  - symbol: Mg # 7
    coordinates: [  0.000000000000000,  0.500000000000000,  0.500000000000000 ]
    mass: 24.305000
    reduced_to: 1
  - symbol: Mg # 8
    coordinates: [  0.500000000000000,  0.500000000000000,  0.500000000000000 ]
    mass: 24.305000
    reduced_to: 1
  - symbol: B  # 9
    coordinates: [  0.166666671500000,  0.333333343500001,  0.250000000000000 ]
    mass: 10.811000
    reduced_to: 9
  - symbol: B  # 10
    coordinates: [  0.666666671500000,  0.333333343500001,  0.250000000000000 ]
    mass: 10.811000
    reduced_to: 9
  - symbol: B  # 11
    coordinates: [  0.166666671500000,  0.833333343500001,  0.250000000000000 ]
    mass: 10.811000
    reduced_to: 9
  - symbol: B  # 12
    coordinates: [  0.666666671500000,  0.833333343500001,  0.250000000000000 ]
    mass: 10.811000
    reduced_to: 9
  - symbol: B  # 13
    coordinates: [  0.166666671500000,  0.333333343500001,  0.750000000000000 ]
    mass: 10.811000
    reduced_to: 9
  - symbol: B  # 14
    coordinates: [  0.666666671500000,  0.333333343500001,  0.750000000000000 ]
    mass: 10.811000
    reduced_to: 9
  - symbol: B  # 15
    coordinates: [  0.166666671500000,  0.833333343500001,  0.750000000000000 ]
    mass: 10.811000
    reduced_to: 9
  - symbol: B  # 16
    coordinates: [  0.666666671500000,  0.833333343500001,  0.750000000000000 ]
    mass: 10.811000
    reduced_to: 9
  - symbol: B  # 17
    coordinates: [  0.333333313499999,  0.166666656499999,  0.250000000000000 ]
    mass: 10.811000
    reduced_to: 17
  - symbol: B  # 18
    coordinates: [  0.833333313499999,  0.166666656499999,  0.250000000000000 ]
    mass: 10.811000
    reduced_to: 17
  - symbol: B  # 19
    coordinates: [  0.333333313499999,  0.666666656499999,  0.250000000000000 ]
    mass: 10.811000
    reduced_to: 17
  - symbol: B  # 20
    coordinates: [  0.833333313499999,  0.666666656499999,  0.250000000000000 ]
    mass: 10.811000
    reduced_to: 17
  - symbol: B  # 21
    coordinates: [  0.333333313499999,  0.166666656499999,  0.750000000000000 ]
    mass: 10.811000
    reduced_to: 17
  - symbol: B  # 22
    coordinates: [  0.833333313499999,  0.166666656499999,  0.750000000000000 ]
    mass: 10.811000
    reduced_to: 17
  - symbol: B  # 23
    coordinates: [  0.333333313499999,  0.666666656499999,  0.750000000000000 ]
    mass: 10.811000
    reduced_to: 17
  - symbol: B  # 24
    coordinates: [  0.833333313499999,  0.666666656499999,  0.750000000000000 ]
    mass: 10.811000
    reduced_to: 17

displacements:
- atom:    1
  displacement:
    [   0.0131822178785642,  0.0000000000000000,  0.0150409152581238 ]
- atom:    9
  displacement:
    [   0.0131822178785642,  0.0000000000000000,  0.0150409152581238 ]
