
     Program PWSCF v.7.1 starts on 23Oct2023 at 14:24:35 

     This program is part of the open-source Quantum ESPRESSO suite
     for quantum simulation of materials; please cite
         "P. Giannozzi et al., J. Phys.:Condens. Matter 21 395502 (2009);
         "P. Giannozzi et al., J. Phys.:Condens. Matter 29 465901 (2017);
         "P. Giannozzi et al., J. Chem. Phys. 152 154105 (2020);
          URL http://www.quantum-espresso.org", 
     in publications or presentations arising from this work. More details at
     http://www.quantum-espresso.org/quote

     Parallel version (MPI), running on    32 processors

     MPI processes distributed on     3 nodes
     60342 MiB available memory on the printing compute node when the environment starts
 
     Waiting for input...
     Reading input from standard input

     Current dimensions of program PWSCF are:
     Max number of different atomic species (ntypx) = 10
     Max number of k-points (npk) =  40000
     Max angular momentum in pseudopotentials (lmaxx) =  4
     file Mg.pbe-spn-kjpaw_psl.1.0.0.UPF: wavefunction(s)  2S renormalized
     Found identity + ( -0.5000  0.0000  0.0000) symmetry
     This is a supercell, fractional translations are disabled
 
     R & G space division:  proc/nbgrp/npool/nimage =      32
     Subspace diagonalization in iterative solution of the eigenvalue problem:
     a serial algorithm will be used

 
     Parallelization info
     --------------------
     sticks:   dense  smooth     PW     G-vecs:    dense   smooth      PW
     Min         176     105     29                12144     5643     845
     Max         177     106     30                12148     5646     848
     Sum        5635    3367    955               388645   180603   27121
 
     Using Slab Decomposition
 


     bravais-lattice index     =            0
     lattice parameter (alat)  =      11.6600  a.u.
     unit-cell volume          =    1566.4290 (a.u.)^3
     number of atoms/cell      =           24
     number of atomic types    =            2
     number of electrons       =       128.00
     number of Kohn-Sham states=           77
     kinetic-energy cutoff     =      90.0000  Ry
     charge density cutoff     =     600.0000  Ry
     scf convergence threshold =      1.0E-07
     mixing beta               =       0.7000
     number of iterations used =           12  local-TF  mixing
     Exchange-correlation= SLA  PW   PBX  PBC
                           (   1   4   3   4   0   0   0)

     celldm(1)=  11.659988  celldm(2)=   0.000000  celldm(3)=   0.000000
     celldm(4)=   0.000000  celldm(5)=   0.000000  celldm(6)=   0.000000

     crystal axes: (cart. coord. in units of alat)
               a(1) = (   1.000000   0.000000   0.000000 )  
               a(2) = (  -0.500000   0.866025   0.000000 )  
               a(3) = (   0.000000   0.000000   1.141000 )  

     reciprocal axes: (cart. coord. in units 2 pi/alat)
               b(1) = (  1.000000  0.577350  0.000000 )  
               b(2) = (  0.000000  1.154701  0.000000 )  
               b(3) = (  0.000000  0.000000  0.876424 )  


     PseudoPot. # 1 for Mg read from file:
     /home/sci/lib/pslibrary.1.0.0/pbe/PSEUDOPOTENTIALS/Mg.pbe-spn-kjpaw_psl.1.0.0.UPF
     MD5 check sum: 04f73a28e21b6db80bf9e35fa60c0604
     Pseudo is Projector augmented-wave + core cor, Zval = 10.0
     Generated using &quot;atomic&quot; code by A. Dal Corso  v.6.4.1
     Shape of augmentation charge: PSQ
     Using radial grid of 1129 points,  4 beta functions with: 
                l(1) =   0
                l(2) =   0
                l(3) =   1
                l(4) =   1
     Q(r) pseudized with 0 coefficients 


     PseudoPot. # 2 for B  read from file:
     /home/sci/lib/pslibrary.1.0.0/pbe/PSEUDOPOTENTIALS/B.pbe-n-kjpaw_psl.1.0.0.UPF
     MD5 check sum: 835105b2c91e2aa59783559523f8db7c
     Pseudo is Projector augmented-wave + core cor, Zval =  3.0
     Generated using &quot;atomic&quot; code by A. Dal Corso  v.6.4.1
     Shape of augmentation charge: PSQ
     Using radial grid of 1059 points,  4 beta functions with: 
                l(1) =   0
                l(2) =   0
                l(3) =   1
                l(4) =   1
     Q(r) pseudized with 0 coefficients 


     atomic species   valence    mass     pseudopotential
        Mg            10.00    24.30500     Mg( 1.00)
        B              3.00    10.81100     B ( 1.00)

     No symmetry found



   Cartesian axes

     site n.     atom                  positions (alat units)
         1           Mg  tau(   1) = (   0.0000000   0.0000000   0.0000000  )
         2           Mg  tau(   2) = (   0.5000000   0.0000000   0.0000000  )
         3           Mg  tau(   3) = (  -0.2500000   0.4330127   0.0000000  )
         4           Mg  tau(   4) = (   0.2500000   0.4330127   0.0000000  )
         5           Mg  tau(   5) = (   0.0000000   0.0000000   0.5705002  )
         6           Mg  tau(   6) = (   0.5000000   0.0000000   0.5705002  )
         7           Mg  tau(   7) = (  -0.2500000   0.4330127   0.5705002  )
         8           Mg  tau(   8) = (   0.2500000   0.4330127   0.5705002  )
         9           B   tau(   9) = (  -0.0000000   0.2886751   0.2852501  )
        10           B   tau(  10) = (   0.5000000   0.2886751   0.2852501  )
        11           B   tau(  11) = (  -0.2500000   0.7216878   0.2852501  )
        12           B   tau(  12) = (   0.2500000   0.7216878   0.2852501  )
        13           B   tau(  13) = (  -0.0000000   0.2886751   0.8557503  )
        14           B   tau(  14) = (   0.5000000   0.2886751   0.8557503  )
        15           B   tau(  15) = (  -0.2500000   0.7216878   0.8557503  )
        16           B   tau(  16) = (   0.2500000   0.7216878   0.8557503  )
        17           B   tau(  17) = (   0.2500000   0.1443376   0.2852501  )
        18           B   tau(  18) = (   0.7500000   0.1443376   0.2852501  )
        19           B   tau(  19) = (  -0.0000000   0.5773503   0.2852501  )
        20           B   tau(  20) = (   0.5000000   0.5773503   0.2852501  )
        21           B   tau(  21) = (   0.2500000   0.1443376   0.8557503  )
        22           B   tau(  22) = (   0.7500000   0.1443376   0.8557503  )
        23           B   tau(  23) = (  -0.0000000   0.5773503   0.8557503  )
        24           B   tau(  24) = (   0.5000000   0.5773503   0.8557503  )

     number of k points=   868  Gaussian smearing, width (Ry)=  0.0010

     Number of k-points >= 100: set verbosity='high' to print them.

     Dense  grid:   388645 G-vectors     FFT dimensions: (  96,  96, 108)

     Smooth grid:   180603 G-vectors     FFT dimensions: (  72,  72,  81)

     Estimated max dynamical RAM per process >     748.99 MB

     Estimated total dynamical RAM >      23.41 GB

     Check: negative core charge=   -0.000002

     Initial potential from superposition of free atoms

     starting charge     127.9881, renormalised to     128.0000
     Starting wfcs are  128 randomized atomic wfcs
     Checking if some PAW data can be deallocated... 

     total cpu time spent up to now is       75.5 secs

     Self-consistent Calculation

     iteration #  1     ecut=    90.00 Ry     beta= 0.70
     Davidson diagonalization with overlap
     ethr =  1.00E-02,  avg # of iterations =  3.3

     total cpu time spent up to now is      215.6 secs

     total energy              =   -1314.63377133 Ry
     estimated scf accuracy    <       2.68620015 Ry

     iteration #  2     ecut=    90.00 Ry     beta= 0.70
     Davidson diagonalization with overlap
     ethr =  2.10E-03,  avg # of iterations =  2.3

     total cpu time spent up to now is      346.9 secs

     total energy              =   -1314.42177078 Ry
     estimated scf accuracy    <       0.70822082 Ry

     iteration #  3     ecut=    90.00 Ry     beta= 0.70
     Davidson diagonalization with overlap
     ethr =  5.53E-04,  avg # of iterations =  4.9

     total cpu time spent up to now is      541.0 secs

     total energy              =   -1314.74198313 Ry
     estimated scf accuracy    <       0.05827606 Ry

     iteration #  4     ecut=    90.00 Ry     beta= 0.70
     Davidson diagonalization with overlap
     c_bands:  1 eigenvalues not converged
     ethr =  4.55E-05,  avg # of iterations =  7.0

     total cpu time spent up to now is      736.7 secs

     total energy              =   -1314.75614608 Ry
     estimated scf accuracy    <       0.02962304 Ry

     iteration #  5     ecut=    90.00 Ry     beta= 0.70
     Davidson diagonalization with overlap
     c_bands:  2 eigenvalues not converged
     c_bands:  2 eigenvalues not converged
     c_bands:  1 eigenvalues not converged
     c_bands:  2 eigenvalues not converged
     c_bands:  1 eigenvalues not converged
     c_bands:  2 eigenvalues not converged
     c_bands:  1 eigenvalues not converged
     c_bands:  1 eigenvalues not converged
     c_bands:  1 eigenvalues not converged
     c_bands:  1 eigenvalues not converged
     ethr =  2.31E-05,  avg # of iterations =  4.1

     total cpu time spent up to now is      892.5 secs

     total energy              =   -1314.76095877 Ry
     estimated scf accuracy    <       0.00048958 Ry

     iteration #  6     ecut=    90.00 Ry     beta= 0.70
     Davidson diagonalization with overlap
     c_bands:  1 eigenvalues not converged
     c_bands:  1 eigenvalues not converged
     c_bands:  1 eigenvalues not converged
     c_bands:  2 eigenvalues not converged
     c_bands:  1 eigenvalues not converged
     c_bands:  1 eigenvalues not converged
     c_bands:  1 eigenvalues not converged
     c_bands:  1 eigenvalues not converged
     c_bands:  1 eigenvalues not converged
     c_bands:  1 eigenvalues not converged
     c_bands:  1 eigenvalues not converged
     c_bands:  1 eigenvalues not converged
     c_bands:  1 eigenvalues not converged
     c_bands:  1 eigenvalues not converged
     c_bands:  1 eigenvalues not converged
     c_bands:  1 eigenvalues not converged
     c_bands:  1 eigenvalues not converged
     c_bands:  1 eigenvalues not converged
     c_bands:  1 eigenvalues not converged
     c_bands:  1 eigenvalues not converged
     c_bands:  1 eigenvalues not converged
     c_bands:  2 eigenvalues not converged
     c_bands:  1 eigenvalues not converged
     c_bands:  2 eigenvalues not converged
     c_bands:  1 eigenvalues not converged
     c_bands:  1 eigenvalues not converged
     c_bands:  1 eigenvalues not converged
     c_bands:  1 eigenvalues not converged
     c_bands:  2 eigenvalues not converged
     c_bands:  1 eigenvalues not converged
     c_bands:  1 eigenvalues not converged
     c_bands:  1 eigenvalues not converged
     c_bands:  1 eigenvalues not converged
     c_bands:  1 eigenvalues not converged
     c_bands:  1 eigenvalues not converged
     c_bands:  2 eigenvalues not converged
     c_bands:  1 eigenvalues not converged
     c_bands:  1 eigenvalues not converged
     c_bands:  1 eigenvalues not converged
     c_bands:  1 eigenvalues not converged
     c_bands:  2 eigenvalues not converged
     c_bands:  2 eigenvalues not converged
     c_bands:  1 eigenvalues not converged
     c_bands:  1 eigenvalues not converged
     c_bands:  1 eigenvalues not converged
     c_bands:  1 eigenvalues not converged
     c_bands:  1 eigenvalues not converged
     c_bands:  1 eigenvalues not converged
     c_bands:  1 eigenvalues not converged
     c_bands:  1 eigenvalues not converged
     c_bands:  1 eigenvalues not converged
     c_bands:  1 eigenvalues not converged
     c_bands:  2 eigenvalues not converged
     c_bands:  1 eigenvalues not converged
     c_bands:  1 eigenvalues not converged
     c_bands:  1 eigenvalues not converged
     c_bands:  1 eigenvalues not converged
     c_bands:  1 eigenvalues not converged
     c_bands:  1 eigenvalues not converged
     c_bands:  1 eigenvalues not converged
     c_bands:  1 eigenvalues not converged
     c_bands:  1 eigenvalues not converged
     c_bands:  1 eigenvalues not converged
     c_bands:  1 eigenvalues not converged
     c_bands:  1 eigenvalues not converged
     c_bands:  1 eigenvalues not converged
     c_bands:  1 eigenvalues not converged
     c_bands:  1 eigenvalues not converged
     c_bands:  1 eigenvalues not converged
     c_bands:  1 eigenvalues not converged
     c_bands:  1 eigenvalues not converged
     c_bands:  1 eigenvalues not converged
     c_bands:  1 eigenvalues not converged
     c_bands:  1 eigenvalues not converged
     c_bands:  1 eigenvalues not converged
     c_bands:  1 eigenvalues not converged
     c_bands:  1 eigenvalues not converged
     c_bands:  2 eigenvalues not converged
     c_bands:  1 eigenvalues not converged
     c_bands:  1 eigenvalues not converged
     c_bands:  1 eigenvalues not converged
     c_bands:  1 eigenvalues not converged
     c_bands:  1 eigenvalues not converged
     c_bands:  1 eigenvalues not converged
     c_bands:  1 eigenvalues not converged
     c_bands:  1 eigenvalues not converged
     c_bands:  1 eigenvalues not converged
     c_bands:  1 eigenvalues not converged
     c_bands:  1 eigenvalues not converged
     c_bands:  1 eigenvalues not converged
     c_bands:  1 eigenvalues not converged
     c_bands:  2 eigenvalues not converged
     c_bands:  2 eigenvalues not converged
     c_bands:  1 eigenvalues not converged
     c_bands:  1 eigenvalues not converged
     c_bands:  1 eigenvalues not converged
     c_bands:  1 eigenvalues not converged
     c_bands:  1 eigenvalues not converged
     c_bands:  1 eigenvalues not converged
     c_bands:  2 eigenvalues not converged
     c_bands:  1 eigenvalues not converged
     c_bands:  1 eigenvalues not converged
     c_bands:  1 eigenvalues not converged
     c_bands:  1 eigenvalues not converged
     c_bands:  1 eigenvalues not converged
     c_bands:  1 eigenvalues not converged
     c_bands:  1 eigenvalues not converged
     c_bands:  2 eigenvalues not converged
     c_bands:  1 eigenvalues not converged
     c_bands:  2 eigenvalues not converged
     c_bands:  2 eigenvalues not converged
     c_bands:  1 eigenvalues not converged
     c_bands:  1 eigenvalues not converged
     c_bands:  1 eigenvalues not converged
     c_bands:  1 eigenvalues not converged
     c_bands:  2 eigenvalues not converged
     c_bands:  2 eigenvalues not converged
     c_bands:  2 eigenvalues not converged
     c_bands:  1 eigenvalues not converged
     c_bands:  3 eigenvalues not converged
     c_bands:  1 eigenvalues not converged
     c_bands:  2 eigenvalues not converged
     c_bands:  2 eigenvalues not converged
     c_bands:  2 eigenvalues not converged
     c_bands:  1 eigenvalues not converged
     c_bands:  1 eigenvalues not converged
     c_bands:  1 eigenvalues not converged
     c_bands:  2 eigenvalues not converged
     c_bands:  1 eigenvalues not converged
     c_bands:  1 eigenvalues not converged
     c_bands:  1 eigenvalues not converged
     c_bands:  1 eigenvalues not converged
     c_bands:  2 eigenvalues not converged
     c_bands:  3 eigenvalues not converged
     c_bands:  1 eigenvalues not converged
     c_bands:  1 eigenvalues not converged
     c_bands:  1 eigenvalues not converged
     c_bands:  1 eigenvalues not converged
     c_bands:  1 eigenvalues not converged
     c_bands:  1 eigenvalues not converged
     c_bands:  1 eigenvalues not converged
     c_bands:  1 eigenvalues not converged
     c_bands:  1 eigenvalues not converged
     c_bands:  1 eigenvalues not converged
     c_bands:  2 eigenvalues not converged
     c_bands:  1 eigenvalues not converged
     c_bands:  1 eigenvalues not converged
     c_bands:  1 eigenvalues not converged
     c_bands:  1 eigenvalues not converged
     c_bands:  1 eigenvalues not converged
     c_bands:  1 eigenvalues not converged
     c_bands:  1 eigenvalues not converged
     c_bands:  2 eigenvalues not converged
     c_bands:  1 eigenvalues not converged
     ethr =  3.82E-07,  avg # of iterations = 11.5

     total cpu time spent up to now is     1221.1 secs

     total energy              =   -1314.76187288 Ry
     estimated scf accuracy    <       0.00005723 Ry

     iteration #  7     ecut=    90.00 Ry     beta= 0.70
     Davidson diagonalization with overlap
     c_bands:  1 eigenvalues not converged
     c_bands:  2 eigenvalues not converged
     c_bands:  1 eigenvalues not converged
     c_bands:  1 eigenvalues not converged
     c_bands:  1 eigenvalues not converged
     c_bands:  1 eigenvalues not converged
     c_bands:  1 eigenvalues not converged
     c_bands:  1 eigenvalues not converged
     c_bands:  1 eigenvalues not converged
     c_bands:  1 eigenvalues not converged
     ethr =  4.47E-08,  avg # of iterations =  5.3

     total cpu time spent up to now is     1398.3 secs

     total energy              =   -1314.76187332 Ry
     estimated scf accuracy    <       0.00009009 Ry

     iteration #  8     ecut=    90.00 Ry     beta= 0.70
     Davidson diagonalization with overlap
     c_bands:  3 eigenvalues not converged
     c_bands:  1 eigenvalues not converged
     c_bands:  1 eigenvalues not converged
     ethr =  4.47E-08,  avg # of iterations =  2.2

     total cpu time spent up to now is     1535.9 secs

     total energy              =   -1314.76187668 Ry
     estimated scf accuracy    <       0.00001179 Ry

     iteration #  9     ecut=    90.00 Ry     beta= 0.70
     Davidson diagonalization with overlap
     ethr =  9.21E-09,  avg # of iterations =  3.3

     total cpu time spent up to now is     1687.1 secs

     total energy              =   -1314.76187826 Ry
     estimated scf accuracy    <       0.00000118 Ry

     iteration # 10     ecut=    90.00 Ry     beta= 0.70
     Davidson diagonalization with overlap
     ethr =  9.18E-10,  avg # of iterations =  4.2

     total cpu time spent up to now is     1884.1 secs

     End of self-consistent calculation

     Number of k-points >= 100: set verbosity='high' to print the bands.

     the Fermi energy is     8.9937 ev

!    total energy              =   -1314.76187894 Ry
     total all-electron energy =     -4000.753575 Ry
     estimated scf accuracy    <       0.00000008 Ry
     smearing contrib. (-TS)   =      -0.00005076 Ry
     internal energy E=F+TS    =   -1314.76182819 Ry

     The total energy is F=E-TS. E is the sum of the following terms:
     one-electron contribution =    -720.45090461 Ry
     hartree contribution      =     389.40962244 Ry
     xc contribution           =    -188.51502751 Ry
     ewald contribution        =    -590.99956694 Ry
     one-center paw contrib.   =    -204.20595156 Ry

     convergence has been achieved in  10 iterations

     Forces acting on atoms (cartesian axes, Ry/au):

     atom    1 type  1   force =    -0.00000038    0.00000047   -0.00000090
     atom    2 type  1   force =    -0.00000079   -0.00000038    0.00000021
     atom    3 type  1   force =     0.00000015   -0.00000092   -0.00000037
     atom    4 type  1   force =     0.00000020   -0.00000009   -0.00000016
     atom    5 type  1   force =     0.00000116    0.00000001    0.00000059
     atom    6 type  1   force =     0.00000169   -0.00000115    0.00000026
     atom    7 type  1   force =    -0.00000030    0.00000002    0.00000008
     atom    8 type  1   force =    -0.00000028   -0.00000022   -0.00000026
     atom    9 type  2   force =    -0.00000020    0.00000005    0.00000002
     atom   10 type  2   force =    -0.00000007    0.00000008    0.00000002
     atom   11 type  2   force =    -0.00000013    0.00000005    0.00000001
     atom   12 type  2   force =    -0.00000004    0.00000015    0.00000010
     atom   13 type  2   force =    -0.00000017    0.00000013    0.00000004
     atom   14 type  2   force =    -0.00000003    0.00000008    0.00000004
     atom   15 type  2   force =    -0.00000010    0.00000001    0.00000001
     atom   16 type  2   force =    -0.00000008    0.00000010    0.00000005
     atom   17 type  2   force =    -0.00000008    0.00000013    0.00000004
     atom   18 type  2   force =    -0.00000004    0.00000028    0.00000005
     atom   19 type  2   force =    -0.00000021    0.00000012    0.00000004
     atom   20 type  2   force =     0.00000007    0.00000023    0.00000005
     atom   21 type  2   force =    -0.00000007    0.00000014    0.00000000
     atom   22 type  2   force =    -0.00000007    0.00000019    0.00000002
     atom   23 type  2   force =    -0.00000019    0.00000021    0.00000003
     atom   24 type  2   force =    -0.00000003    0.00000029    0.00000004

     Total force =     0.000003     Total SCF correction =     0.000006
     SCF correction compared to forces is large: reduce conv_thr to get better values


     Computing stress (Cartesian axis) and pressure

          total   stress  (Ry/bohr**3)                   (kbar)     P=       -9.39
  -0.00009448   0.00000000   0.00000000          -13.90        0.00        0.00
   0.00000000  -0.00009448  -0.00000000            0.00      -13.90       -0.00
   0.00000000  -0.00000000  -0.00000259            0.00       -0.00       -0.38


     Writing all to output data dir ./tmp/mgb2.save/
 
     init_run     :     73.65s CPU     75.33s WALL (       1 calls)
     electrons    :   1778.05s CPU   1808.61s WALL (       1 calls)
     forces       :     13.54s CPU     13.79s WALL (       1 calls)
     stress       :     37.26s CPU     37.41s WALL (       1 calls)

     Called by init_run:
     wfcinit      :     73.22s CPU     74.85s WALL (       1 calls)
     potinit      :      0.13s CPU      0.13s WALL (       1 calls)
     hinit0       :      0.15s CPU      0.17s WALL (       1 calls)

     Called by electrons:
     c_bands      :   1608.84s CPU   1634.77s WALL (      10 calls)
     sum_band     :    168.43s CPU    173.01s WALL (      10 calls)
     v_of_rho     :      0.20s CPU      0.20s WALL (      11 calls)
     newd         :      0.16s CPU      0.18s WALL (      11 calls)
     PAW_pot      :      0.28s CPU      0.29s WALL (      11 calls)
     mix_rho      :      0.16s CPU      0.17s WALL (      10 calls)

     Called by c_bands:
     init_us_2    :      9.84s CPU     10.87s WALL (   19964 calls)
     init_us_2:cp :      9.77s CPU     10.83s WALL (   19964 calls)
     cegterg      :   1565.71s CPU   1589.52s WALL (    8680 calls)

     Called by *egterg:
     cdiaghg      :    326.20s CPU    328.64s WALL (   50458 calls)
     h_psi        :    960.83s CPU    979.64s WALL (   51326 calls)
     s_psi        :     67.49s CPU     68.06s WALL (   51326 calls)
     g_psi        :      6.17s CPU      6.21s WALL (   41778 calls)

     Called by h_psi:
     h_psi:calbec :     80.82s CPU     82.62s WALL (   51326 calls)
     vloc_psi     :    807.59s CPU    823.75s WALL (   51326 calls)
     add_vuspsi   :     67.54s CPU     67.80s WALL (   51326 calls)

     General routines
     calbec       :    116.62s CPU    119.46s WALL (   64346 calls)
     fft          :      0.24s CPU      0.25s WALL (     166 calls)
     ffts         :      0.09s CPU      0.09s WALL (     246 calls)
     fftw         :    854.25s CPU    871.10s WALL ( 4744688 calls)
     interpolate  :      0.02s CPU      0.02s WALL (      11 calls)
 
     Parallel routines
 
     PWSCF        :  32m16.92s CPU  33m18.64s WALL

 
   This run was terminated on:  14:57:54  23Oct2023            

=------------------------------------------------------------------------------=
   JOB DONE.
=------------------------------------------------------------------------------=
